# vtk DataFile Version 3.0
file is written by INMOST
ASCII
DATASET UNSTRUCTURED_GRID
POINTS 833 double
2.87089 1.61013 0 
3.36203 1.28101 0 
3.85316 1.53924 0 
3.99578 1.44304 0 
3.99156 1.1519 0 
4.07595 0.949367 0 
3.88608 0.759494 0 
4.15612 0.683544 0 
4.66245 0.654008 0 
4.80591 0.468354 0 
4.78903 0.248945 0 
5.11814 0.0253165 0 
5.66245 0.345992 0 
5.69198 0.696203 0 
5.92827 0.734177 0 
6.2827 0.729958 0 
6.38397 1.39241 0 
6.25738 1.49367 0 
6.59072 2.05063 0 
6.48945 2.45992 0 
6.71308 2.67932 0 
7.1308 3.48101 0 
7.36287 3.70464 0 
7.59494 3.63713 0 
7.82278 3.57806 0 
7.86076 3.80591 0 
8.21097 3.92405 0 
8.35443 3.83966 0 
8.36709 4.1519 0 
8.76371 4.24051 0 
8.77215 4.11392 0 
9.11392 4.08017 0 
9.16878 3.91139 0 
9.41772 3.88186 0 
9.53165 4.03797 0 
9.5865 4.29958 0 
9.87342 4.9789 0 
10.1603 5.05485 0 
10.0759 5.22363 0 
10.1392 5.93671 0 
9.46414 6.16456 0 
9.23207 6.49789 0 
9.5654 6.48523 0 
9.44726 6.85232 0 
8.75949 7.20675 0 
8.48945 7.92827 0 
8.2827 8.24473 0 
7.44304 8.32911 0 
7.32911 8.81013 0 
7.66667 9.06329 0 
7.19831 9.29958 0 
7.21941 9.55274 0 
6.78059 9.51899 0 
6.66667 9.08439 0 
6.47257 8.70464 0 
6.76371 8.43882 0 
6.18143 8.14768 0 
5.62447 7.75105 0 
5.68354 7.57806 0 
5.2827 7.5443 0 
5.12658 7.96203 0 
4.75949 7.89873 0 
4.67932 7.61181 0 
4.0211 7.46835 0 
3.88186 6.827 0 
3.64557 6.29536 0 
3.57806 6.1097 0 
3.32068 6.24895 0 
3.21519 6.00844 0 
2.93249 6.00422 0 
2.90717 5.81013 0 
2.46414 5.89873 0 
2.21941 6.29958 0 
1.91561 6.30802 0 
1.30802 6.06751 0 
0.966245 5.91139 0 
0.776371 6 0 
0.35443 6.0211 0 
0.164557 5.68776 0 
0.240506 5.21097 0 
0.261603 4.91139 0 
0.455696 4.77215 0 
0.021097 3.46414 0 
0.400844 2.98734 0 
0.308017 2.93249 0 
0.476793 2.63291 0 
0.413502 2.49367 0 
0.759494 2.42616 0 
0.738397 2.06329 0 
0.624473 1.74262 0 
1.00422 1.64557 0 
1.23629 1.96624 0 
1.67932 2.03376 0 
6.052 2.3485 0 
0.238397 4.11814 0 
2.27511 1.82194 0 
5.47283 7.3102 0 
7.02921 3.81312 0 
2.62241 5.56551 0 
2.9282 5.50435 0 
2.72138 5.26586 0 
3.02476 5.21052 0 
8.52014 4.3988 0 
2.82531 4.98204 0 
3.12638 4.91666 0 
4.10903 6.40771 0 
2.94238 4.69966 0 
3.23426 4.63417 0 
3.41914 4.85636 0 
3.52285 4.59541 0 
3.69335 4.79715 0 
3.79317 4.56032 0 
3.94958 4.74903 0 
4.04314 4.51546 0 
4.1941 4.69806 0 
4.28531 4.42654 0 
4.43 4.66656 0 
4.53872 4.42091 0 
4.08488 4.2726 0 
4.68406 4.64664 0 
4.79412 4.38687 0 
4.95395 4.60377 0 
4.86155 4.85865 0 
5.12215 4.82991 0 
5.03924 5.07482 0 
5.29974 5.05062 0 
5.19651 5.3104 0 
5.49343 5.26351 0 
3.37602 4.3373 0 
5.37304 5.5429 0 
5.68629 5.48924 0 
5.04413 4.34751 0 
4.89354 4.14408 0 
5.12705 4.10368 0 
4.98456 3.92309 0 
5.20277 3.88367 0 
5.07179 3.72316 0 
5.26127 3.68469 0 
5.14607 3.54325 0 
5.31349 3.50777 0 
5.20747 3.37604 0 
5.04038 3.40622 0 
5.10787 3.26087 0 
4.94127 3.27239 0 
5.02475 3.12263 0 
5.36839 3.34693 0 
4.83511 3.14131 0 
4.89886 2.98535 0 
5.05983 2.96287 0 
4.96299 2.84146 0 
5.10617 2.82396 0 
5.02635 2.71282 0 
5.15581 2.69749 0 
5.08047 2.59479 0 
5.20154 2.5864 0 
5.26971 2.67635 0 
5.31051 2.57507 0 
5.37199 2.65426 0 
5.25164 2.48929 0 
5.40744 2.56597 0 
5.46168 2.63518 0 
5.49332 2.56027 0 
5.5415 2.62158 0 
5.57123 2.55152 0 
5.61412 2.60863 0 
5.52699 2.49288 0 
4.71257 3.00176 0 
4.94821 2.60588 0 
5.64692 2.54043 0 
5.70421 2.60478 0 
5.58658 2.6979 0 
5.69945 2.71225 0 
5.72489 2.53152 0 
1.2233 5.76394 0 
2.52863 5.04304 0 
5.47533 3.47324 0 
4.09809 4.93248 0 
9.08522 6.14821 0 
5.34755 4.06687 0 
4.64384 3.17935 0 
4.50993 3.0174 0 
5.55818 5.77647 0 
5.87496 5.73901 0 
4.42685 3.22879 0 
4.29305 3.04483 0 
5.61061 4.99375 0 
4.91711 5.31611 0 
4.1926 3.2716 0 
2.13137 2.32354 0 
4.03082 3.06434 0 
4.20908 1.12299 0 
5.67604 2.47803 0 
5.26326 5.81717 0 
0.776336 4.31212 0 
4.36666 2.8445 0 
4.01942 1.64577 0 
3.80642 1.7613 0 
5.43433 6.043 0 
7.29348 4.03244 0 
5.61928 2.80342 0 
5.74656 2.83592 0 
5.16327 6.07806 0 
6.95478 4.15628 0 
7.24332 4.38507 0 
6.90597 4.52019 0 
7.19729 4.74128 0 
5.00596 2.48371 0 
4.86879 2.49258 0 
4.92962 2.36464 0 
4.78403 2.37309 0 
4.84896 2.23882 0 
4.6957 2.24937 0 
4.76306 2.10977 0 
4.91402 2.09976 0 
4.83458 1.96755 0 
4.99456 1.95485 0 
4.90817 1.81084 0 
5.08436 1.80377 0 
4.98451 1.63556 0 
5.1784 1.95052 0 
5.18175 1.62443 0 
3.60394 5.06318 0 
4.60359 2.11696 0 
5.33999 2.75408 0 
3.92113 3.31825 0 
3.7533 3.07923 0 
6.71178 3.91105 0 
5.31576 6.28853 0 
5.58536 6.27214 0 
5.0608 6.31506 0 
4.91469 6.13103 0 
5.0742 1.44742 0 
5.83112 2.72958 0 
5.88932 2.87184 0 
4.80496 1.65205 0 
5.29378 1.44381 0 
5.39218 1.66493 0 
4.75518 3.95137 0 
4.89353 0.679251 0 
9.43382 4.84975 0 
3.62787 3.36665 0 
3.43315 3.12045 0 
3.30563 3.43386 0 
6.86117 4.88933 0 
7.1521 5.10119 0 
7.48306 4.96286 0 
7.43632 5.32531 0 
7.77122 5.18156 0 
7.72713 5.55663 0 
7.39176 5.6963 0 
5.20541 6.51623 0 
4.96372 6.54068 0 
8.05052 5.4003 0 
8.03253 5.78487 0 
3.60778 2.82606 0 
5.65803 2.93979 0 
7.97331 4.02924 0 
4.53146 2.27018 0 
4.43086 2.12703 0 
4.34848 2.29388 0 
5.10623 6.73335 0 
4.87575 6.75816 0 
5.3383 6.71183 0 
5.7848 0.920217 0 
6.67498 7.88843 0 
0.785233 5.78484 0 
4.17079 1.52247 0 
8.15583 7.39211 0 
6.57834 4.67628 0 
4.86887 3.42769 0 
3.09551 3.15842 0 
2.95916 3.49505 0 
6.84145 5.24866 0 
4.74738 0.868697 0 
0.954475 4.76816 0 
1.26236 4.38223 0 
5.54306 0.881463 0 
9.28558 5.83734 0 
4.09163 3.5456 0 
1.69425 2.52331 0 
2.09892 2.8137 0 
1.60692 2.96178 0 
1.93833 3.25262 0 
2.2394 5.62892 0 
4.71377 6.5651 0 
5.51883 1.44313 0 
5.62767 1.63969 0 
5.52497 3.31623 0 
5.64603 3.43821 0 
5.42063 3.198 0 
8.9359 5.82865 0 
5.19798 1.22202 0 
7.8066 4.81957 0 
6.17733 1.92129 0 
4.51206 1.96811 0 
3.21758 5.4472 0 
6.00256 5.42765 0 
6.21539 5.69784 0 
4.80292 2.6203 0 
5.59684 3.60943 0 
5.78222 3.58086 0 
5.83821 3.38452 0 
5.99124 3.5355 0 
5.93778 3.78344 0 
6.0518 3.32112 0 
5.99124 2.74658 0 
5.94701 2.59781 0 
5.19019 2.91628 0 
9.11629 5.53384 0 
1.4431 4.84106 0 
1.79412 4.46276 0 
8.73319 6.11888 0 
1.72585 5.91601 0 
1.54774 3.40166 0 
4.36323 1.98251 0 
5.53932 1.84167 0 
5.73075 1.82479 0 
5.64898 1.9912 0 
5.80729 2.0119 0 
5.70255 2.11874 0 
5.5748 2.1215 0 
5.88443 2.10355 0 
5.81104 2.22844 0 
5.74873 2.46672 0 
5.7015 2.41409 0 
5.77106 2.3982 0 
5.82187 2.45337 0 
5.8463 2.38407 0 
3.52452 3.67912 0 
5.08497 2.35254 0 
5.24162 6.92057 0 
5.4682 6.90541 0 
1.22814 3.09176 0 
3.79734 6.1249 0 
3.70657 5.94161 0 
3.92204 5.94976 0 
3.81392 5.75108 0 
4.04321 5.7643 0 
3.93115 5.56709 0 
4.16319 5.57366 0 
4.27545 5.77827 0 
4.40073 5.57874 0 
6.26786 3.52693 0 
5.62943 2.42654 0 
5.65511 2.3569 0 
5.57474 2.37597 0 
6.08023 6.01898 0 
6.43354 5.97771 0 
6.29802 6.31408 0 
6.66148 6.26503 0 
6.52624 6.61948 0 
6.92233 6.56983 0 
6.15431 6.63674 0 
4.40744 1.79949 0 
5.90264 2.43023 0 
5.90931 2.36455 0 
5.96368 2.42234 0 
5.97492 2.3733 0 
6.07564 2.91834 0 
6.2976 3.24306 0 
4.50932 5.792 0 
4.37777 5.9927 0 
4.60795 6.81162 0 
6.36446 6.98905 0 
2.73339 3.19652 0 
2.85376 2.85364 0 
2.5949 3.54361 0 
2.82581 3.84402 0 
2.46988 3.88579 0 
5.74951 1.43452 0 
8.76916 5.54497 0 
8.96696 5.19605 0 
5.064 0.505193 0 
3.59717 5.74675 0 
4.95482 1.25963 0 
5.56782 6.69748 0 
5.70679 6.89319 0 
4.25944 5.33507 0 
9.49925 5.47706 0 
5.51622 2.89489 0 
6.10078 2.62921 0 
6.49582 3.43409 0 
4.4854 0.870554 0 
4.61502 1.07328 0 
4.77689 7.01165 0 
5.46875 0.614737 0 
5.28753 0.814677 0 
8.60663 5.23827 0 
8.74231 4.93484 0 
8.39689 4.90357 0 
4.46836 2.43975 0 
4.26777 2.47604 0 
4.13908 2.3052 0 
4.03222 2.51851 0 
3.89368 2.30898 0 
1.88721 3.68697 0 
1.0763 3.54434 0 
4.57383 3.36477 0 
0.445979 5.49702 0 
5.92702 1.85 0 
1.14075 5.21715 0 
1.57426 5.27492 0 
5.56739 3.1684 0 
6.13863 1.1951 0 
5.03718 1.08839 0 
6.76666 5.92014 0 
4.51882 5.37128 0 
4.42504 5.13064 0 
4.45986 6.59835 0 
4.56709 6.37396 0 
2.64255 2.14016 0 
3.15022 2.08522 0 
6.33524 2.24349 0 
6.27991 2.42353 0 
5.60328 1.09428 0 
0.520657 3.47239 0 
5.86936 2.32074 0 
5.92962 2.31262 0 
2.72195 4.22253 0 
6.20401 2.30257 0 
6.16429 2.39615 0 
4.02008 6.13458 0 
7.59521 4.22868 0 
4.01659 1.85562 0 
5.88303 3.208 0 
5.78748 2.31111 0 
6.32706 5.38434 0 
6.14619 5.11539 0 
6.11658 2.32116 0 
6.12392 2.23963 0 
6.06529 2.26644 0 
6.05391 2.18384 0 
6.13311 2.1303 0 
6.04107 2.07589 0 
6.10544 2.3749 0 
6.1026 2.42966 0 
6.0453 2.42007 0 
6.07018 2.49782 0 
0.736989 5.12236 0 
5.89525 2.26572 0 
7.5828 3.89935 0 
8.125 6.66983 0 
7.60312 6.93606 0 
7.53516 7.57071 0 
7.70565 6.37767 0 
7.12956 7.21269 0 
5.48225 2.01107 0 
5.4241 2.16 0 
5.60121 2.29318 0 
5.50644 2.32565 0 
5.82658 2.60531 0 
5.69021 2.28551 0 
4.66178 5.20284 0 
5.26985 0.384692 0 
2.25848 4.24319 0 
4.65244 4.18202 0 
4.52327 3.97235 0 
4.62976 3.76997 0 
4.39448 3.79572 0 
4.2929 3.99714 0 
4.60578 6.00028 0 
4.74938 5.80536 0 
5.94971 2.49222 0 
6.59137 4.25781 0 
6.29383 4.45995 0 
6.25914 4.14787 0 
6.00702 4.31501 0 
6.00625 4.6091 0 
5.746 4.46228 0 
5.76826 4.17734 0 
6.29524 7.64184 0 
5.95049 2.26951 0 
5.99426 2.29841 0 
1.93081 4.91449 0 
9.33948 4.05858 0 
9.28413 4.2764 0 
9.0552 4.30393 0 
9.18133 4.4458 0 
8.96619 4.49373 0 
0.988453 5.7082 0 
0.822818 5.56236 0 
2.07449 5.97216 0 
6.08938 2.33809 0 
6.34154 3.78563 0 
5.46369 3.05175 0 
5.30451 3.09448 0 
5.36814 2.95078 0 
3.32288 5.13642 0 
3.55782 5.34047 0 
3.80024 5.23724 0 
6.6297 3.23037 0 
5.92078 6.35542 0 
9.15254 4.69626 0 
6.07912 2.36549 0 
4.60279 1.80867 0 
4.51431 1.63654 0 
6.33141 2.63711 0 
2.50292 2.9151 0 
5.17248 3.04452 0 
5.49258 4.32026 0 
5.51353 4.58355 0 
5.36679 7.11262 0 
5.15485 7.12338 0 
4.20123 1.71105 0 
6.52057 5.0677 0 
4.85974 3.74555 0 
7.53098 4.60291 0 
7.83856 4.49242 0 
8.1013 4.69521 0 
5.35218 2.482 0 
5.29141 2.38917 0 
5.10218 5.57912 0 
5.26484 3.24147 0 
3.7641 2.55198 0 
3.56218 2.2704 0 
3.90099 6.33507 0 
4.23504 6.20774 0 
5.87528 2.51735 0 
4.16817 1.32405 0 
4.3476 1.27596 0 
4.52491 7.08871 0 
5.40758 2.37949 0 
5.33809 2.27605 0 
5.21326 2.29617 0 
5.27082 2.17518 0 
[...]
CELL_DATA 1569
SCALARS Vec_to_center_coords double 3
LOOKUP_TABLE default
-0.576099 -1.07004 0 
1.93062 -3.90201 0 
-3.25666 -1.60261 0 
3.96921 -3.41762 0 
4.14668 -3.7174 0 
-0.221052 0.0248008 0 
2.74714 -1.79676 0 
0.010625 -0.00659829 0 
0.369385 -0.168659 0 
-3.43387 -1.78404 0 
-3.55623 -2.64113 0 
-3.35137 -1.86352 0 
3.38743 -3.41012 0 
0.620471 0.551461 0 
4.99267 -3.44651 0 
5.2556 -1.04024 0 
0.444274 1.79569 0 
2.55861 -1.82287 0 
-2.38111 -3.00207 0 
0.169042 -0.225491 0 
1.41311 -0.357575 0 
3.16411 0.402831 0 
1.77867 0.345216 0 
5.08766 -3.24952 0 
-3.15539 -1.66871 0 
2.04197 -3.94445 0 
0.133903 -0.0466242 0 
-1.70749 -1.3257 0 
0.274359 0.098316 0 
0.127997 -0.187795 0 
2.63651 0.264081 0 
0.718729 0.57155 0 
0.885356 1.44178 0 
2.28768 -0.555506 0 
2.95845 0.00208788 0 
-2.5365 -3.10655 0 
0.302517 -3.87258 0 
-0.639893 -2.13676 0 
0.576238 -1.77377 0 
5.12747 -2.87892 0 
0.165918 -0.0449502 0 
-0.109626 0.00803778 0 
-0.316199 -0.0276466 0 
3.73151 -0.642304 0 
2.41466 0.281035 0 
0.410977 -0.154823 0 
1.88206 0.310779 0 
0.0463212 0.0259986 0 
1.24515 -5.07669 0 
-0.419802 0.0966531 0 
0.314636 0.0792903 0 
2.49106 -1.95947 0 
0.332395 0.307388 0 
3.23274 -3.27866 0 
0.917177 1.55151 0 
1.07117 2.17078 0 
4.68721 -2.99843 0 
-0.435847 -2.11668 0 
2.68591 -2.96003 0 
0.19081 0.993218 0 
3.91971 -0.754812 0 
2.60335 -2.67065 0 
-1.6275 -1.43279 0 
-0.689064 -2.72056 0 
3.79932 -3.70882 0 
-2.29791 -1.96404 0 
4.14039 -3.51331 0 
0.910505 0.0678975 0 
5.65166 -2.9759 0 
2.93162 -0.23067 0 
4.30653 -1.80003 0 
5.33628 -2.53956 0 
0.149234 0.0153609 0 
1.39024 -1.98193 0 
1.84948 -1.94285 0 
1.51178 -0.330688 0 
2.64389 -3.1111 0 
-0.60136 -2.52977 0 
3.97514 -2.08475 0 
4.21702 0.0544666 0 
3.79266 -3.48527 0 
1.51379 -1.91775 0 
4.0234 0.288256 0 
0.602649 -0.617808 0 
2.80769 -1.60418 0 
-1.36105 -1.53081 0 
0.0916842 -0.0469148 0 
0.218688 0.259312 0 
1.73662 -1.91676 0 
0.0871408 0.155103 0 
1.50158 0.945892 0 
0.137558 -3.78819 0 
0.412316 0.462113 0 
0.436002 -1.81059 0 
5.56186 -2.0528 0 
5.7378 -0.959956 0 
2.28408 -0.379757 0 
-2.25871 -3.82989 0 
-1.46154 -1.39904 0 
4.67247 -1.27639 0 
3.15599 0.108964 0 
1.98 -4.26837 0 
-1.37062 -4.89182 0 
1.33558 -2.46027 0 
1.79671 -3.70863 0 
0.179506 0.116824 0 
1.94886 -2.94933 0 
4.87256 -2.59412 0 
0.123592 0.00429926 0 
3.05876 -0.361619 0 
-1.4385 -1.70549 0 
-1.75926 -4.31319 0 
0.719447 -2.03108 0 
2.55712 -2.83202 0 
5.27505 -1.28716 0 
2.76254 -2.62181 0 
2.73614 0.0758649 0 
-3.37567 -2.94695 0 
1.73515 0.650065 0 
2.14667 -0.634935 0 
4.40261 -2.66216 0 
1.40413 1.00316 0 
1.87881 -2.85404 0 
0.322994 0.405371 0 
-0.514027 -0.605178 0 
-0.164068 -0.0260862 0 
1.16297 -5.20167 0 
2.61702 -3.78151 0 
4.05855 -1.90537 0 
0.0460063 -0.0341603 0 
5.01978 -0.913362 0 
-0.414596 -0.407426 0 
0.071409 -0.0516617 0 
0.177009 -0.00845633 0 
0.251228 -0.942745 0 
5.10793 -2.68789 0 
0.00655003 0.000562005 0 
0.262284 -5.09392 0 
-2.13778 -2.52998 0 
0.458641 -4.90681 0 
-1.99897 -5.40636 0 
0.632513 -2.13363 0 
-2.41626 -5.16104 0 
-2.23222 -2.38798 0 
0.707666 0.144256 0 
1.63617 -1.99926 0 
0.288715 -0.847318 0 
-0.0173433 1.54183 0 
0.649678 -0.103414 0 
-2.2294 -4.60851 0 
4.52833 -1.90939 0 
5.11853 -3.1272 0 
4.22793 -2.82415 0 
5.71034 -3.28645 0 
-0.331974 -1.31559 0 
5.50409 -2.63814 0 
5.48075 -0.854573 0 
0.0611036 1.07302 0 
0.00455058 0.0259546 0 
0.584984 1.89953 0 
0.858604 -0.944794 0 
4.66596 -2.76304 0 
-0.488044 -5.81031 0 
0.279315 0.254246 0 
3.68903 -0.410625 0 
1.92906 1.14836 0 
1.47943 -2.39624 0 
1.91594 -3.75593 0 
0.0658358 0.0234566 0 
2.71049 -1.27618 0 
3.43742 -0.423936 0 
1.97292 0.610523 0 
0.599053 -0.0819273 0 
-0.0226864 0.00563971 0 
0.416806 -0.11686 0 
-3.54119 -2.9434 0 
5.32316 -2.26948 0 
-0.029901 0.0474869 0 
0.395141 -0.678568 0 
5.39178 -0.23122 0 
-0.765371 -1.96343 0 
1.19158 -1.28737 0 
0.714935 1.16389 0 
-0.00690754 -0.206789 0 
-0.0518012 0.00328307 0 
1.18853 -1.18141 0 
-1.90932 -4.65133 0 
0.409892 0.270852 0 
-0.119142 -0.649185 0 
3.84513 -3.07781 0 
0.983396 0.0895397 0 
2.70984 -3.60955 0 
4.32932 -2.39144 0 
4.40217 -1.32393 0 
0.418617 -0.324926 0 
-1.60292 -2.09334 0 
-1.60304 -1.70193 0 
1.47176 -4.16447 0 
-3.36291 -4.26381 0 
0.620955 -5.08463 0 
-2.17168 -4.0608 0 
0.788777 1.24779 0 
-2.01952 -1.90126 0 
2.60284 -3.58295 0 
0.529762 -0.648108 0 
0.771765 -0.973481 0 
0.0600728 -0.0352246 0 
-0.372933 -5.09924 0 
0.510532 -2.36532 0 
0.11578 -0.0658892 0 
0.516647 -0.22979 0 
0.597854 -0.239136 0 
0.688687 -0.250435 0 
-1.7911 -5.28394 0 
2.89895 -1.21483 0 
4.31368 -3.0497 0 
0.309135 1.04368 0 
0.980067 -3.05388 0 
0.791414 -0.26461 0 
1.05028 -1.70895 0 
0.965624 -1.49531 0 
-0.492291 -5.28702 0 
0.0372897 0.00996247 0 
2.01262 1.55053 0 
1.88588 1.48943 0 
1.63079 0.6749 0 
-0.935618 -7.11417 0 
2.35415 -1.38129 0 
0.579309 -0.0262278 0 
-0.329445 -1.94054 0 
-3.20847 -3.92222 0 
-1.67338 -2.2903 0 
-2.19574 -3.05608 0 
2.04966 -1.78883 0 
0.495149 0.40002 0 
4.1936 -3.18998 0 
0.892286 -1.30237 0 
-0.0723704 -4.08741 0 
1.009 -0.528099 0 
0.755547 -1.06225 0 
3.85783 -2.8989 0 
0.81172 -1.23057 0 
0.478172 -2.50205 0 
0.319079 0.031404 0 
5.43042 -0.656681 0 
0.955889 -0.396761 0 
0.261122 -2.67835 0 
1.05752 -0.675616 0 
0.873386 -1.41584 0 
0.734595 -0.28723 0 
1.19141 1.39891 0 
0.69529 -0.193015 0 
-1.55488 -2.44711 0 
0.328265 -0.648814 0 
0.296024 -2.53444 0 
-1.91447 -4.06311 0 
0.638297 -0.270469 0 
-2.29371 -2.11646 0 
0.203036 0.0899253 0 
0.829654 -1.12769 0 
-3.20037 -2.22169 0 
0.842981 -0.305417 0 
0.553166 -0.257675 0 
3.30664 -0.282813 0 
1.17525 2.0231 0 
0.523586 -0.0250549 0 
-3.24423 -2.08173 0 
0.906062 -0.278229 0 
0.445911 -0.179321 0 
1.9602 0.40547 0 
0.381191 -2.96222 0 
1.30377 -1.4743 0 
2.10192 -2.91672 0 
0.947205 -1.62215 0 
2.894 -2.73987 0 
4.25197 -0.418265 0 
1.27197 -1.88966 0 
0.926841 -0.76283 0 
2.66609 -1.46279 0 
5.05562 -0.66241 0 
1.09481 1.32568 0 
-1.71271 -4.95163 0 
0.0845035 -0.194456 0 
0.419418 0.579283 0 
2.47754 -1.51302 0 
2.76967 -3.50042 0 
-1.9123 -2.85767 0 
0.148624 1.47841 0 
-2.21602 -5.40479 0 
4.07715 -0.205517 0 
2.33245 -2.98443 0 
2.35801 -3.71074 0 
-0.70064 -1.76038 0 
0.935488 -3.40512 0 
1.07262 -3.33089 0 
2.398 -2.86563 0 
1.51894 -1.76823 0 
2.11575 -1.90067 0 
5.09599 -1.46195 0 
2.34929 -3.34076 0 
2.36684 -3.09483 0 
1.10549 -4.05508 0 
1.25004 -2.84523 0 
0.579834 1.20647 0 
2.43061 -1.68053 0 
2.17947 -2.99913 0 
1.54936 1.33704 0 
5.79195 -1.33689 0 
-0.0266607 -0.00399021 0 
2.98043 -3.6069 0 
0.326676 -4.0266 0 
2.23796 -3.28088 0 
-0.0767689 -0.0160722 0 
-0.383401 -1.19841 0 
0.208516 0.155188 0 
1.63879 -1.7066 0 
1.99 0.810908 0 
0.828091 -3.12947 0 
1.22117 -4.13843 0 
-1.35178 -2.42101 0 
0.0275736 -0.010271 0 
0.948377 -0.834944 0 
4.83202 -2.31582 0 
-0.0214702 0.0184566 0 
0.00690126 0.0100857 0 
3.45582 0.49059 0 
-0.134665 -1.95961 0 
-1.92117 -2.01615 0 
2.99515 -3.03936 0 
-1.32534 -1.8674 0 
0.650962 0.111337 0 
0.833591 -0.753447 0 
2.38221 -2.30296 0 
3.89471 -2.59561 0 
1.60408 -1.00282 0 
0.833558 -0.371962 0 
0.868349 -0.87456 0 
1.6656 1.38053 0 
2.79207 -2.4544 0 
0.700711 -0.914133 0 
1.17424 -1.65818 0 
1.07811 -0.581894 0 
1.02016 -0.444749 0 
2.08175 -2.54314 0 
2.12337 -2.26027 0 
5.55435 -1.47843 0 
1.91082 0.530394 0 
1.6947 -3.78345 0 
2.01256 -3.54651 0 
3.87422 -1.01095 0 
1.1414 -1.94482 0 
3.05889 -1.35154 0 
-1.86349 -2.32107 0 
0.872058 -3.87921 0 
0.933268 -0.553038 0 
2.73417 -0.258531 0 
0.655722 -0.766741 0 
2.50689 -2.40164 0 
-2.39564 -2.37716 0 
0.217903 -0.201312 0 
-0.555075 -4.75057 0 
0.765047 -3.63141 0 
1.03043 -1.85042 0 
0.245184 -0.678452 0 
0.858011 -4.02527 0 
0.0722819 -0.00150629 0 
0.964457 -0.32037 0 
-0.0476792 -3.88149 0 
0.532274 0.63257 0 
0.714673 0.221651 0 
2.65992 -2.34731 0 
0.379407 -0.293888 0 
0.211574 -1.97021 0 
0.334152 -4.84649 0 
2.86359 -2.91671 0 
-3.37929 -2.03299 0 
0.653839 -3.36418 0 
1.35338 -4.08286 0 
0.293984 -0.159839 0 
0.977339 -0.093587 0 
1.18551 -1.52534 0 
-3.19384 -1.79038 0 
4.17061 -0.661369 0 
0.747548 -3.78853 0 
2.23997 -2.35417 0 
1.81038 1.107 0 
0.618387 -0.542807 0 
-1.40451 -2.05755 0 
0.87661 -0.494092 0 
1.78053 0.549104 0 
1.28714 -2.96359 0 
0.805841 -3.2984 0 
4.87469 -0.512978 0 
0.801787 -0.695695 0 
3.16951 -1.70862 0 
1.16822 -0.543853 0 
3.09075 -3.31169 0 
3.81288 -0.213438 0 
0.0832255 -4.20275 0 
2.02027 -3.66993 0 
0.614001 -0.939053 0 
0.573487 -4.83071 0 
-1.63496 -2.64 0 
0.975358 -4.10932 0 
0.590448 0.43608 0 
0.383054 -1.97196 0 
3.09922 -1.89856 0 
1.12183 -3.91853 0 
4.55214 -2.21402 0 
-0.396009 -4.88165 0 
2.47986 -2.55756 0 
1.43607 1.41049 0 
2.29479 0.143422 0 
3.01203 -1.55429 0 
0.568094 -0.791381 0 
-0.0328055 -1.82272 0 
-3.05023 -3.59006 0 
0.794976 -0.576517 0 
0.96631 -0.695342 0 
-1.98212 -2.17636 0 
0.238961 0.0747938 0 
0.960215 -4.24875 0 
0.106255 -0.323405 0 
0.503918 -0.0631687 0 
0.933424 -0.999709 0 
-0.197679 -1.32326 0 
0.502038 1.13278 0 
1.28794 -2.5983 0 
0.649724 -0.165574 0 
0.406417 -2.79706 0 
3.70233 0.252787 0 
1.19022 -3.40631 0 
1.3011 -1.35325 0 
-2.71997 -2.77505 0 
0.132242 -2.11413 0 
0.174414 1.32564 0 
2.13226 -1.54844 0 
0.809591 -0.507836 0 
1.00105 -2.88577 0 
-0.846589 -1.61215 0 
0.693129 -4.63153 0 
3.16055 -2.97891 0 
2.15795 -1.66805 0 
0.633409 -3.53088 0 
-1.73208 -1.9639 0 
0.127652 -0.956546 0 
0.521484 -0.186889 0 
-1.07486 -7.04103 0 
1.04515 -0.0522968 0 
0.0485496 -0.0148423 0 
1.07997 -1.44927 0 
4.66196 -0.569745 0 
2.39819 -1.20008 0 
1.00575 -3.82671 0 
0.21762 0.00935672 0 
0.823282 -4.44058 0 
2.21666 -2.49803 0 
1.91423 -2.05686 0 
-0.116221 -4.49222 0 
0.643536 1.42766 0 
-1.76487e-05 -0.00528255 0 
-0.254293 -2.64704 0 
1.9598 1.27325 0 
3.90249 -2.42898 0 
2.9554 0.554134 0 
0.441241 -0.218861 0 
0.887635 -0.00261271 0 
-0.982689 -2.00585 0 
1.24823 -0.34081 0 
-2.52994 -2.67756 0 
2.05386 -2.68423 0 
2.88235 -3.50633 0 
-0.193128 -0.757423 0 
-3.28453 -2.35634 0 
-1.27186 -2.22842 0 
-1.06353 -2.20084 0 
2.60997 -0.380287 0 
-0.603467 -2.88664 0 
0.772163 -0.390823 0 
-3.22631 -3.70203 0 
0.673221 -0.684336 0 
-0.274188 -4.17543 0 
0.0341469 -0.24012 0 
0.858219 1.85505 0 
-1.53556 -3.7874 0 
2.95099 -2.40216 0 
2.47094 -3.28694 0 
3.05985 -2.68841 0 
0.184743 -5.20814 0 
-2.18523 -1.72656 0 
0.923735 -5.37981 0 
4.08436 -2.30852 0 
0.968807 1.35054 0 
1.13281 0.158059 0 
1.73115 -0.971766 0 
4.59107 -0.803735 0 
2.29625 -2.74944 0 
2.33188 -2.60274 0 
1.5973 -3.97339 0 
-0.106606 -2.96113 0 
1.66448 -3.50632 0 
-0.810108 -4.82512 0 
4.03169 -1.15924 0 
1.57111 -3.7143 0 
-2.62937 -2.0224 0 
-1.95646 -1.78252 0 
0.359994 -0.210909 0 
0.413351 0.198088 0 
1.92846 -1.80307 0 
0.335449 -0.14409 0 
1.09495 -3.14857 0 
1.2647 1.74746 0 
1.87782 -2.19869 0 
0.485886 -0.163471 0 
0.873503 -2.79728 0 
-1.11186 -1.84326 0 
1.32641 1.203 0 
-2.8988 -3.07695 0 
0.920691 -1.09384 0 
5.20103 -0.19392 0 
-3.37762 -1.6448 0 
0.835353 -4.3058 0 
0.0395655 0.160282 0 
0.558282 0.250475 0 
-0.729826 -2.34726 0 
-0.936143 -2.36893 0 
0.888071 -0.421165 0 
1.59951 -2.63833 0 
-2.72892 -2.97843 0 
-0.05037 -2.11335 0 
4.83578 -1.47476 0 
1.72509 -2.69807 0 
-0.208954 -0.174258 0 
1.16611 0.764432 0 
0.408286 1.38268 0 
0.602678 -0.191662 0 
0.538286 1.33446 0 
0.913649 -0.208568 0 
4.72142 -3.52444 0 
-2.97707 -1.85228 0 
1.82467 -3.98925 0 
-3.06059 -3.38527 0 
2.8812 -1.93682 0 
-0.346582 0.227529 0 
0.928946 1.96557 0 
-0.99303 -6.62349 0 
2.15315 -2.78582 0 
-2.88845 -3.28782 0 
1.98355 -1.03048 0 
1.04435 -2.57312 0 
3.25871 -1.27956 0 
-0.398343 -2.50067 0 
-1.79763 -3.03149 0 
0.915124 -3.57143 0 
0.37872 1.51537 0 
0.966227 0.444955 0 
2.56599 -1.14521 0 
0.702623 -4.49794 0 
0.618886 1.57771 0 
1.29355 0.936076 0 
1.02737 -0.870629 0 
0.195064 -0.0745569 0 
1.63399 -2.15667 0 
1.42055 1.14515 0 
0.130821 -1.83255 0 
3.54719 -1.9897 0 
0.839847 1.65194 0 
1.28495 -1.74449 0 
0.0406604 -0.00600523 0 
1.13242 -0.735095 0 
-3.24837 -3.26808 0 
3.37945 -1.63611 0 
1.72653 0.458617 0 
1.55437 -3.58032 0 
0.562826 -0.167299 0 
1.25271 -0.416962 0 
-0.331885 -5.54465 0 
0.79744 -0.202254 0 
0.717406 1.6752 0 
0.250316 1.56447 0 
-0.0572075 -2.59361 0 
0.467962 -2.10736 0 
-0.279275 -2.84114 0 
1.89476 -3.48934 0 
2.2707 -3.90377 0 
0.914372 -0.0667272 0 
-0.0882063 -5.47637 0 
0.208033 -4.94431 0 
3.63167 0.011076 0 
1.35453 -2.71303 0 
1.98789 -1.35836 0 
-3.01169 -4.01743 0 
0.211481 -3.01693 0 
-1.49672 -4.26562 0 
-3.17073 -4.35402 0 
0.57503 -4.69577 0 
-0.0788328 -4.94622 0 
0.722007 -0.829983 0 
1.94042 0.918147 0 
1.70798 -3.91799 0 
-3.22063 -2.50051 0 
0.152834 -3.58272 0 
1.38565 -0.93142 0 
-1.22548 -2.58711 0 
1.84289 -1.07737 0 
1.86822 1.34295 0 
0.747224 -0.167454 0 
2.13885 -3.72174 0 
1.98973 -2.30618 0 
1.08359 1.93768 0 
1.08871 -1.33235 0 
1.42026 1.55025 0 
1.41593 -1.5499 0 
-1.11049 -6.53263 0 
0.765819 0.388866 0 
0.600352 0.0216408 0 
0.910897 2.12553 0 
1.65892 -1.32417 0 
-1.18383 -3.92473 0 
2.15653 -2.12483 0 
1.50897 0.820997 0 
0.762762 0.770276 0 
5.13128 -0.315692 0 
0.898292 -2.63711 0 
-1.83099 -2.6641 0 
1.35568 -0.538159 0 
-2.04126 -5.69057 0 
0.464982 -0.610788 0 
0.0564711 1.23402 0 
0.0790853 -0.111113 0 
3.62671 -3.1573 0 
1.76191 -0.256426 0 
0.261656 -0.133789 0 
1.12761 0.0697648 0 
0.454155 -0.531367 0 
-3.10293 -2.80688 0 
1.0646 0.210323 0 
3.20303 -2.02502 0 
1.40837 -1.68725 0 
0.0366644 -0.0408343 0 
0.650401 0.830708 0 
-2.4409 -4.78748 0 
-2.05397 -1.68568 0 
3.61002 -3.34972 0 
1.12422 -2.80255 0 
0.856593 -0.1734 0 
1.1978 0.0224835 0 
-1.51153 -2.80857 0 
4.35434 -0.857354 0 
1.07636 0.832642 0 
0.976482 0.3522 0 
1.59484 -0.416021 0 
0.802805 -0.819097 0 
0.73566 -0.588018 0 
0.697673 -3.02427 0 
-0.129672 -3.15528 0 
-1.41936 -3.98489 0 
-0.218597 -3.75559 0 
1.33201 -0.219797 0 
4.47912 0.0539717 0 
0.51283 -3.25487 0 
0.250388 -0.0164615 0 
0.98867 1.15798 0 
1.59704 -4.10821 0 
1.03131 -3.67605 0 
0.159046 0.38667 0 
0.666261 -1.09465 0 
2.67429 -2.17429 0 
0.547668 -0.879542 0 
-2.10559 -3.24052 0 
1.89138 -3.35741 0 
0.213314 -0.763647 0 
0.230315 0.452436 0 
1.92152 0.721571 0 
1.3797 -2.13681 0 
0.184055 0.196818 0 
1.65683 -3.36833 0 
1.20999 0.198549 0 
0.976332 1.03831 0 
2.00451 -4.79611 0 
-1.03426 -4.08339 0 
-1.01819 -2.5626 0 
1.28276 0.148678 0 
0.217475 0.576549 0 
2.48406 -3.15152 0 
1.38153 -1.18489 0 
-0.322764 -2.29809 0 
1.20092 -4.27331 0 
1.07278 -2.41611 0 
2.24335 -3.65742 0 
1.11721 -0.0989782 0 
0.606851 -3.85322 0 
-3.06451 -2.98498 0 
1.28421 1.61401 0 
2.11141 -1.13945 0 
1.54457 0.489244 0 
-2.20501 -2.70876 0 
2.21205 -1.4122 0 
-0.899574 -2.73173 0 
-0.526273 -3.5061 0 
1.54382 0.599766 0 
-1.94102 -2.50198 0 
1.27285 0.809862 0 
-1.19877 -5.1416 0 
-2.08955 -2.87433 0 
-0.191053 -3.55018 0 
1.78324 -3.56547 0 
0.225249 -2.25785 0 
-0.783486 -5.79958 0 
0.343245 -0.104948 0 
1.50383 -0.909633 0 
3.72851 -2.11296 0 
1.97141 -2.44519 0 
0.48407 1.6172 0 
0.68771 -1.873 0 
1.77755 -3.14783 0 
-0.00485967 -3.47061 0 
1.6509 -2.931 0 
0.978839 -0.174339 0 
0.593137 -0.423194 0 
0.0834934 0.0578274 0 
0.911165 -0.626558 0 
-0.307026 -3.23421 0 
-1.35446 -6.61727 0 
-0.568559 -3.7063 0 
0.722777 -4.22673 0 
0.863346 0.976915 0 
0.723301 1.81853 0 
0.539104 0.765416 0 
0.461696 -4.62263 0 
-0.149245 -0.242817 0 
3.4218 -1.40981 0 
1.659 -3.08036 0 
-0.0985545 -4.66357 0 
1.12127 -2.09805 0 
-0.143475 -5.1099 0 
1.64845 -1.57374 0 
1.62442 0.4313 0 
0.357876 1.1571 0 
1.16653 1.53526 0 
3.19485 -2.80481 0 
0.0211211 -1.56532 0 
1.77221 -3.29556 0 
1.48851 -2.73633 0 
0.317256 0.646654 0 
-1.24501 -4.64509 0 
-1.4664 -3.17808 0 
-0.0393127 -0.0114932 0 
1.88828 -1.58732 0 
1.67605 -1.2119 0 
0.483323 0.306742 0 
0.499752 -0.473632 0 
1.04894 0.0318608 0 
1.51678 -2.88692 0 
1.59785 -2.48364 0 
0.993854 0.179708 0 
4.26091 -1.09908 0 
0.0780378 -4.88093 0 
-0.639338 -6.51814 0 
2.14586 -3.85018 0 
0.238923 -0.0638813 0 
1.19671 1.01595 0 
1.04045 -0.21346 0 
2.62368 -0.0874996 0 
2.0593 -2.02893 0 
1.09814 -5.49795 0 
-0.0941438 -0.095982 0 
1.46995 -3.77784 0 
5.19143 0.578851 0 
2.12561 -3.47371 0 
2.45392 -0.66058 0 
0.0164712 0.0824845 0 
0.765502 -1.4529 0 
1.00373 -1.15927 0 
0.0788793 0.406328 0 
-0.671687 -6.30295 0 
1.21881 -2.35502 0 
5.28004 0.43961 0 
1.15278 0.648517 0 
-1.71492 -1.80701 0 
-1.17652 -1.50207 0 
0.70161 -0.0688879 0 
-0.342517 -3.432 0 
1.77291 -1.51683 0 
3.29467 -3.09724 0 
1.02216 -0.965159 0 
1.16968 -0.457365 0 
1.53616 -1.49802 0 
2.00615 -3.28702 0 
1.4305 -3.51788 0 
3.36023 -2.74898 0 
0.789991 0.476354 0 
0.823772 0.320324 0 
-1.30516 -2.78178 0 
0.686014 -4.88895 0 
1.36455 0.189299 0 
2.31052 0.703556 0 
4.63177 0.239659 0 
0.595768 -1.0308 0 
1.53906 -3.30704 0 
5.20938 -3.55075 0 
0.0210313 -3.2735 0 
3.08731 -2.51812 0 
-0.296336 -4.40042 0 
0.930666 -4.51924 0 
2.12257 -3.34616 0 
4.95417 -3.31671 0 
0.0650575 -0.149444 0 
3.56856 -1.76917 0 
2.23782 -3.53282 0 
3.15778 -0.721526 0 
1.74821 -2.84014 0 
2.75425 -3.23177 0 
3.28952 -1.06372 0 
0.826208 -1.67007 0 
1.27577 0.0609065 0 
5.20934 0.115903 0 
1.3411 -0.295017 0 
0.730292 -4.08563 0 
1.11503 1.20256 0 
4.76794 -0.99792 0 
0.173243 0.302155 0 
1.44465 -1.11041 0 
0.748607 1.03758 0 
2.37834 -3.82865 0 
2.1426 -0.27724 0 
0.38301 -0.0915541 0 
0.0389894 -0.309868 0 
-0.412346 -3.83761 0 
0.993264 -1.26492 0 
0.113324 -0.100263 0 
0.305672 1.27901 0 
2.26599 -1.07979 0 
1.3249 1.33791 0 
0.296515 -1.11986 0 
5.05428 -2.1395 0 
1.0701 -4.3294 0 
4.50659 -0.38026 0 
0.15392 0.0483054 0 
0.722106 -2.86017 0 
3.35531 -0.640417 0 
0.161141 -0.276313 0 
0.0233018 -0.0333186 0 
0.603641 -4.00426 0 
1.21478 0.288973 0 
2.10151 -1.29065 0 
1.24834 -3.87462 0 
0.473727 -3.60321 0 
1.74886 -2.24905 0 
1.66212 -0.620911 0 
-1.2608 -3.14224 0 
0.907982 1.23995 0 
1.53589 -3.1668 0 
0.453669 -0.104182 0 
0.868757 0.84278 0 
-2.52491 -2.48572 0 
1.19119 -0.062102 0 
1.53513 -1.36682 0 
3.48936 -0.979411 0 
1.08626 0.957951 0 
2.98729 -3.19072 0 
0.0211417 -0.000586 0 
2.34611 -3.46515 0 
-2.8661 -3.68391 0 
0.664533 0.368681 0 
1.57091 -1.11948 0 
1.45441 0.431033 0 
2.28564 -1.72619 0 
5.3362 -3.52531 0 
1.42284 -3.38258 0 
1.45814 -4.31035 0 
1.61662 0.322119 0 
3.52002 -0.769909 0 
2.10453 0.593772 0 
1.73061 1.18534 0 
0.00822911 -0.0111532 0 
0.219521 0.0440246 0 
2.28457 -0.906708 0 
1.5365 0.277301 0 
-3.64397 -3.0752 0 
5.73428 -2.71409 0 
-3.34227 -2.64801 0 
-0.90793 -5.07629 0 
2.59645 -0.958988 0 
2.29041 -2.08751 0 
3.98216 -3.84525 0 
2.00242 -0.325794 0 
-1.59289 -3.0065 0 
-1.88473 -3.2326 0 
4.00499 -3.20258 0 
-0.160239 -0.539855 0 
4.27551 -1.54143 0 
3.12265 -0.935331 0 
0.197398 -3.20396 0 
0.779173 0.657746 0 
4.5096 -3.1231 0 
2.53855 -2.09739 0 
0.724767 -0.346898 0 
0.559248 -0.119724 0 
1.2517 -0.597284 0 
2.00382 -0.870065 0 
0.797582 -4.70419 0 
1.50107 -2.23004 0 
2.9319 -1.01445 0 
-0.982621 -2.91832 0 
2.00231 -1.51223 0 
-0.132068 -2.2757 0 
1.03365 -0.289831 0 
5.24111 -0.591393 0 
0.103799 0.0158716 0 
1.44886 -0.594376 0 
-1.24033 -6.19819 0 
0.464669 -3.76844 0 
1.90554 -3.08311 0 
0.584074 -2.75462 0 
0.185402 -0.118983 0 
0.38949 -2.24933 0 
0.942521 -2.31026 0 
1.13085 1.79707 0 
0.476379 -0.245912 0 
1.11829 -0.830777 0 
0.882898 0.502771 0 
0.0109809 0.0397771 0 
0.593891 -4.42357 0 
1.09613 -1.12075 0 
1.62148 1.13905 0 
0.627821 -0.321896 0 
0.848557 0.127016 0 
3.49731 -2.86212 0 
0.644194 0.276353 0 
1.24129 -2.19776 0 
-0.062169 -0.196387 0 
0.416899 -0.389856 0 
2.83635 -2.11377 0 
-0.0743911 0.972623 0 
1.21314 1.14089 0 
1.61644 0.792996 0 
0.968527 -2.14946 0 
0.567351 -0.481408 0 
2.88778 -3.25677 0 
0.542891 0.178003 0 
1.75771 1.29639 0 
-2.16907 -1.88036 0 
0.601973 -4.28714 0 
-0.0105623 -2.42484 0 
0.244718 -4.15592 0 
1.56416 -0.541958 0 
-2.21743 -3.4328 0 
0.419996 0.842221 0 
0.714043 -5.03284 0 
0.14393 -1.58064 0 
2.44723 -0.840776 0 
0.286727 -0.351835 0 
1.16241 -4.55787 0 
1.60257 0.0133958 0 
2.15025 -0.805941 0 
2.7739 -0.889581 0 
0.534414 -3.08388 0 
0.33023 -1.01948 0 
5.48025 -0.363156 0 